
  ___ ___ ___ _ _ _  
 |   |   |_  | | | | 
 | | | | | . | | | | 
 |__ |  _|___|_____|  1.4.0
 |___|_|             

User:   bojje@Boisen-ThinkPad-X260
Date:   Wed Sep  5 14:34:05 2018
Arch:   x86_64
Pid:    10387
Python: 3.6.5
gpaw:   /home/bojje/.local/lib/python3.6/site-packages/gpaw
_gpaw:  /home/bojje/.local/lib/python3.6/site-packages/
        _gpaw.cpython-36m-x86_64-linux-gnu.so
ase:    /home/bojje/.local/lib/python3.6/site-packages/ase (version 3.16.2)
numpy:  /home/bojje/.local/lib/python3.6/site-packages/numpy (version 1.15.1)
scipy:  /home/bojje/.local/lib/python3.6/site-packages/scipy (version 1.1.0)
units:  Angstrom and eV
cores:  1

Input parameters:
  hund: False

System changes: positions, numbers, cell, initial_magmoms, initial_charges 

Initialize ...

H-setup:
  name: Hydrogen
  id: d65de229564ff8ea4db303e23b6d1ecf
  Z: 1
  valence: 1
  core: 0
  charge: 0.0
  file: /usr/share/gpaw-setups/H.PBE.gz
  cutoffs: 0.48(comp), 0.85(filt), 0.53(core), lmax=2
  valence states:
                energy  radius
    1s(1.00)    -6.494   0.476
    *s          20.717   0.476
    *p           0.000   0.476

  Using partial waves for H as LCAO basis

Reference energy: -24.980324

Spin-paired calculation

Occupation numbers:
  Fixed magnetic moment
  Fermi-Dirac: width=0.0000 eV

Convergence criteria:
  Maximum total energy change: 0.0005 eV / electron
  Maximum integral of absolute density change: 0.0001 electrons
  Maximum integral of absolute eigenstate change: 4e-08 eV^2
  Maximum number of iterations: 333

Symmetries present (total): 1

  ( 1  0  0)
  ( 0  1  0)
  ( 0  0  1)

1 k-point (Gamma)
1 k-point in the irreducible part of the Brillouin zone
       k-points in crystal coordinates                weights
   0:     0.00000000    0.00000000    0.00000000          1/1

Wave functions: Plane wave expansion
  Cutoff energy: 340.000 eV
  Number of coefficients: 14243 (reduced to 7122)
  Pulay-stress correction: 0.000000 eV/Ang^3 (de/decut=0.000000)
  Using FFTW library
  ScaLapack parameters: grid=1x1, blocksize=None 

Eigensolver
   RMM-DIIS eigensolver
       keep_htpsit: True
       Block size: 10
       DIIS iterations: 3
       Threshold for DIIS: 1.0e-16
       Limit lambda: False
       use_rayleigh: False
       trial_step: 0.1 

Densities:
  Coarse grid: 45*45*45 grid
  Fine grid: 90*90*90 grid
  Total Charge: 0.000000 

Density mixing:
  Method: separate
  Backend: pulay
  Linear mixing parameter: 0.05
  Mixing with 5 old densities
  Damping of long wave oscillations: 50 

Hamiltonian:
  XC and Coulomb potentials evaluated on a 90*90*90 grid
  Using the PBE Exchange-Correlation functional
 

Memory estimate:
  Process memory now: 311.02 MiB
  Calculator: 58.24 MiB
    Density: 42.85 MiB
      Arrays: 18.08 MiB
      Localized functions: 17.82 MiB
      Mixer: 6.95 MiB
    Hamiltonian: 12.18 MiB
      Arrays: 11.82 MiB
      XC: 0.00 MiB
      Poisson: 0.00 MiB
      vbar: 0.36 MiB
    Wavefunctions: 3.20 MiB
      Arrays psit_nG: 0.22 MiB
      Eigensolver: 0.76 MiB
      Projections: 0.00 MiB
      Projectors: 0.38 MiB
      PW-descriptor: 1.84 MiB

Total number of cores used: 1

Number of atoms: 2
Number of atomic orbitals: 2
Number of bands in calculation: 2
Bands to converge: occupied states only
Number of valence electrons: 2

... initialized

Initializing position-dependent things.

Density initialized from atomic densities
Creating initial wave functions:
  2 bands from LCAO basis set

       .------------------------.  
      /|                        |  
     / |                        |  
    /  |                        |  
   /   |                        |  
  /    |                        |  
 *     |                        |  
 |     |                        |  
 |     |                        |  
 |     |        HH              |  
 |     |                        |  
 |     |                        |  
 |     .------------------------.  
 |    /                        /   
 |   /                        /    
 |  /                        /     
 | /                        /      
 |/                        /       
 *------------------------*        

Positions:
   0 H      4.630000    5.000000    5.000000    ( 0.0000,  0.0000,  0.0000)
   1 H      5.370000    5.000000    5.000000    ( 0.0000,  0.0000,  0.0000)

Unit cell:
           periodic     x           y           z      points  spacing
  1. axis:    no    10.000000    0.000000    0.000000    45     0.2222
  2. axis:    no     0.000000   10.000000    0.000000    45     0.2222
  3. axis:    no     0.000000    0.000000   10.000000    45     0.2222

  Lengths:  10.000000  10.000000  10.000000
  Angles:   90.000000  90.000000  90.000000

Effective grid spacing dv^(1/3) = 0.2222

                     log10-error:    total        iterations:
           time      wfs    density  energy       fermi  poisson
iter:   1  14:34:07  +2.13   +inf    -4.775784    0             
iter:   2  14:34:07  +0.03   +inf    -7.235096    0             
iter:   3  14:34:07  -2.67   +inf    -7.280687    0             
iter:   4  14:34:08  -2.28  -0.41    -7.207959    0             
iter:   5  14:34:09  +0.26  -0.43    -6.498351    0             
iter:   6  14:34:10  -1.27  -1.67    -6.659568    0             
iter:   7  14:34:11  -1.79  -1.13    -6.646107    0             
iter:   8  14:34:12  -1.88  -1.39    -6.639634    0             
iter:   9  14:34:13  -2.89  -1.99    -6.640094    0             
iter:  10  14:34:14  -4.16  -2.68    -6.640141    0             
iter:  11  14:34:15  -3.77  -2.36    -6.640172    0             
iter:  12  14:34:16  -6.15  -3.89    -6.640181    0             
iter:  13  14:34:17  -6.18  -4.00    -6.640181    0             
iter:  14  14:34:18  -8.64  -3.88    -6.640181    0             
iter:  15  14:34:19  -6.21  -3.86    -6.640181    0             
iter:  16  14:34:20  -8.76  -4.22    -6.640181    0             

Converged after 16 iterations.

Dipole moment: (-0.000000, 0.000000, -0.000000) |e|*Ang

Energy contributions relative to reference atoms: (reference = -24.980324)

Kinetic:         +6.236186
Potential:       -7.824690
External:        +0.000000
XC:              -5.047103
Entropy (-ST):   +0.000000
Local:           -0.004574
--------------------------
Free energy:     -6.640181
Extrapolated:    -6.640181

Fermi levels: inf, -inf

 Band  Eigenvalues  Occupancy
    0    -10.33522    2.00000
    1      0.40395    0.00000

