
  ___ ___ ___ _ _ _  
 |   |   |_  | | | | 
 | | | | | . | | | | 
 |__ |  _|___|_____|  1.4.0
 |___|_|             

User:   bojje@Boisen-ThinkPad-X260
Date:   Wed Sep 12 12:13:02 2018
Arch:   x86_64
Pid:    5341
Python: 3.6.5
gpaw:   /home/bojje/.local/lib/python3.6/site-packages/gpaw
_gpaw:  /home/bojje/.local/lib/python3.6/site-packages/
        _gpaw.cpython-36m-x86_64-linux-gnu.so
ase:    /home/bojje/.local/lib/python3.6/site-packages/ase (version 3.16.2)
numpy:  /home/bojje/.local/lib/python3.6/site-packages/numpy (version 1.15.1)
scipy:  /home/bojje/.local/lib/python3.6/site-packages/scipy (version 1.1.0)
units:  Angstrom and eV
cores:  1

Input parameters:
  kpts: [8 8 8]
  mode: {ecut: 200.0,
         name: pw}
  occupations: {name: fermi-dirac,
                width: 0.01}
  random: True
  xc: PBE

System changes: positions, numbers, cell, pbc, initial_charges, initial_magmoms 

Initialize ...

Si-setup:
  name: Silicon
  id: ee77bee481871cc2cb65ac61239ccafa
  Z: 14
  valence: 4
  core: 10
  charge: 0.0
  file: /usr/share/gpaw-setups/Si.PBE.gz
  cutoffs: 1.06(comp), 1.86(filt), 2.06(core), lmax=2
  valence states:
                energy  radius
    3s(2.00)   -10.812   1.058
    3p(2.00)    -4.081   1.058
    *s          16.399   1.058
    *p          23.130   1.058
    *d           0.000   1.058

  Using partial waves for Si as LCAO basis

Reference energy: -15772.688500

Spin-paired calculation

Occupation numbers:
  Fermi-Dirac: width=0.0100 eV

Convergence criteria:
  Maximum total energy change: 0.0005 eV / electron
  Maximum integral of absolute density change: 0.0001 electrons
  Maximum integral of absolute eigenstate change: 4e-08 eV^2
  Maximum number of iterations: 333

Symmetries present (total): 24

  ( 1  0  0)  ( 1  0  0)  ( 1  0 -1)  ( 1  0 -1)  ( 1 -1  0)  ( 1 -1  0)
  ( 0  1  0)  ( 0  0  1)  ( 0  1 -1)  ( 0  0 -1)  ( 0 -1  1)  ( 0 -1  0)
  ( 0  0  1)  ( 0  1  0)  ( 0  0 -1)  ( 0  1 -1)  ( 0 -1  0)  ( 0 -1  1)

  ( 0  1  0)  ( 0  1  0)  ( 0  1 -1)  ( 0  1 -1)  ( 0  0  1)  ( 0  0  1)
  ( 1  0  0)  ( 0  0  1)  ( 1  0 -1)  ( 0  0 -1)  ( 1  0  0)  ( 0  1  0)
  ( 0  0  1)  ( 1  0  0)  ( 0  0 -1)  ( 1  0 -1)  ( 0  1  0)  ( 1  0  0)

  ( 0  0 -1)  ( 0  0 -1)  ( 0 -1  1)  ( 0 -1  1)  ( 0 -1  0)  ( 0 -1  0)
  ( 1  0 -1)  ( 0  1 -1)  ( 1 -1  0)  ( 0 -1  0)  ( 1 -1  0)  ( 0 -1  1)
  ( 0  1 -1)  ( 1  0 -1)  ( 0 -1  0)  ( 1 -1  0)  ( 0 -1  1)  ( 1 -1  0)

  (-1  1  0)  (-1  1  0)  (-1  0  1)  (-1  0  1)  (-1  0  0)  (-1  0  0)
  (-1  0  1)  (-1  0  0)  (-1  1  0)  (-1  0  0)  (-1  1  0)  (-1  0  1)
  (-1  0  0)  (-1  0  1)  (-1  0  0)  (-1  1  0)  (-1  0  1)  (-1  1  0)
Note: your k-points are not as symmetric as your crystal!

512 k-points: 8 x 8 x 8 Monkhorst-Pack grid
60 k-points in the irreducible part of the Brillouin zone
       k-points in crystal coordinates                weights
   0:     0.06250000    0.06250000   -0.06250000          6/512
   1:     0.06250000    0.06250000    0.06250000          2/512
   2:     0.18750000   -0.06250000   -0.06250000          6/512
   3:     0.18750000    0.06250000   -0.18750000         12/512
   4:     0.18750000    0.06250000   -0.06250000         12/512
   5:     0.18750000    0.06250000    0.06250000          6/512
   6:     0.18750000    0.18750000   -0.18750000          6/512
   7:     0.18750000    0.18750000   -0.06250000          6/512
   8:     0.18750000    0.18750000    0.06250000          6/512
   9:     0.18750000    0.18750000    0.18750000          2/512
          ...
  59:     0.43750000    0.43750000    0.43750000          2/512

Wave functions: Plane wave expansion
  Cutoff energy: 200.000 eV
  Number of coefficients (min, max): 251, 271
  Pulay-stress correction: 0.000000 eV/Ang^3 (de/decut=0.000000)
  Using FFTW library
  ScaLapack parameters: grid=1x1, blocksize=None 

Eigensolver
   Davidson(niter=1, smin=None, normalize=True) 

Densities:
  Coarse grid: 10*10*10 grid
  Fine grid: 20*20*20 grid
  Total Charge: 0.000000 

Density mixing:
  Method: separate
  Backend: pulay
  Linear mixing parameter: 0.05
  Mixing with 5 old densities
  Damping of long wave oscillations: 50 

Hamiltonian:
  XC and Coulomb potentials evaluated on a 20*20*20 grid
  Using the PBE Exchange-Correlation functional
 

Memory estimate:
  Process memory now: 388.55 MiB
  Calculator: 4.65 MiB
    Density: 0.41 MiB
      Arrays: 0.20 MiB
      Localized functions: 0.13 MiB
      Mixer: 0.08 MiB
    Hamiltonian: 0.13 MiB
      Arrays: 0.13 MiB
      XC: 0.00 MiB
      Poisson: 0.00 MiB
      vbar: 0.00 MiB
    Wavefunctions: 4.11 MiB
      Arrays psit_nG: 1.98 MiB
      Eigensolver: 0.06 MiB
      Projections: 0.19 MiB
      Projectors: 1.65 MiB
      PW-descriptor: 0.22 MiB

Total number of cores used: 1

Number of atoms: 2
Number of atomic orbitals: 8
Number of bands in calculation: 8
Bands to converge: occupied states only
Number of valence electrons: 8

... initialized

Initializing position-dependent things.

Density initialized from atomic densities
Creating initial wave functions:
  8 bands from LCAO basis set

                    
                    
                    
                    
           Si       
                    
       Si           
                    
                    
                    
                    

Positions:
   0 Si     0.000000    0.000000    0.000000    ( 0.0000,  0.0000,  0.0000)
   1 Si     1.357500    1.357500    1.357500    ( 0.0000,  0.0000,  0.0000)

Unit cell:
           periodic     x           y           z      points  spacing
  1. axis:    yes    0.000000    2.715000    2.715000    10     0.3135
  2. axis:    yes    2.715000    0.000000    2.715000    10     0.3135
  3. axis:    yes    2.715000    2.715000    0.000000    10     0.3135

  Lengths:   3.839590   3.839590   3.839590
  Angles:   60.000000  60.000000  60.000000

Effective grid spacing dv^(1/3) = 0.3421

                     log10-error:    total        iterations:
           time      wfs    density  energy       fermi  poisson
iter:   1  12:13:05  +1.47   +inf   -10.752447    0             
iter:   2  12:13:06  -0.09   +inf   -10.865117    0             
iter:   3  12:13:07  -1.14   +inf   -10.877473    0             
iter:   4  12:13:09  -1.93  -0.79   -10.864460    0             
iter:   5  12:13:10  -0.94  -0.81   -10.778526    9             
iter:   6  12:13:12  -1.86  -1.64   -10.779852    0             
iter:   7  12:13:13  -2.62  -1.68   -10.779458    0             
iter:   8  12:13:15  -2.67  -1.94   -10.778036    0             
iter:   9  12:13:16  -3.62  -2.58   -10.778047    0             
iter:  10  12:13:17  -3.92  -2.70   -10.778025    0             
iter:  11  12:13:19  -4.27  -2.58   -10.778054    0             
iter:  12  12:13:20  -5.01  -3.92   -10.778055    0             
iter:  13  12:13:22  -5.47  -3.94   -10.778055    0             
iter:  14  12:13:23  -5.86  -3.59   -10.778055    0             
iter:  15  12:13:24  -6.09  -3.70   -10.778056    0             
iter:  16  12:13:26  -7.07  -4.18   -10.778056    0             
iter:  17  12:13:27  -7.22  -4.24   -10.778056    0             
iter:  18  12:13:29  -7.79  -4.77   -10.778056    0             

Converged after 18 iterations.

Dipole moment: (-2.924240, -2.924240, -2.924240) |e|*Ang

Energy contributions relative to reference atoms: (reference = -15772.688500)

Kinetic:        +15.780271
Potential:      -13.862984
External:        +0.000000
XC:             -12.664177
Entropy (-ST):   -0.000000
Local:           -0.031165
--------------------------
Free energy:    -10.778056
Extrapolated:   -10.778056

Fermi level: 5.49855

Warning: Showing only first 2 kpts
 Kpt  Band  Eigenvalues  Occupancy
  0     2      4.79612    0.02344
  0     3      4.96719    0.02344
  0     4      7.71429    0.00000
  0     5      8.33139    0.00000

  1     2      5.23226    0.00781
  1     3      5.23226    0.00781
  1     4      7.94341    0.00000
  1     5      8.00029    0.00000


-------------------------
Hamiltonian:                         0.159     0.000   0.0% |
 Atomic:                             0.135     0.001   0.0% |
  XC Correction:                     0.134     0.134   0.0% |
 Calculate atomic Hamiltonians:      0.002     0.002   0.0% |
 Communicate:                        0.000     0.000   0.0% |
 Initialize Hamiltonian:             0.000     0.000   0.0% |
 Poisson:                            0.000     0.000   0.0% |
 XC 3D grid:                         0.022     0.022   0.0% |
LCAO initialization:                 0.499     0.031   0.0% |
 LCAO eigensolver:                   0.167     0.002   0.0% |
  Calculate projections:             0.002     0.002   0.0% |
  DenseAtomicCorrection:             0.007     0.007   0.0% |
  Distribute overlap matrix:         0.001     0.001   0.0% |
  Orbital Layouts:                   0.019     0.019   0.0% |
  Potential matrix:                  0.008     0.008   0.0% |
  Sum over cells:                    0.129     0.129   0.0% |
 LCAO to grid:                       0.087     0.087   0.0% |
 Set positions (LCAO WFS):           0.214     0.001   0.0% |
  Basic WFS set positions:           0.002     0.002   0.0% |
  Basis functions set positions:     0.000     0.000   0.0% |
  TCI: Calculate S, T, P:            0.211     0.211   0.0% |
PWDescriptor:                        0.006     0.006   0.0% |
SCF-cycle:                          17.768     0.281   0.0% |
 Davidson:                          12.923     4.194   0.2% |
  Subspace diag:                     2.798     0.135   0.0% |
   calc_h_matrix:                    1.919     1.919   0.1% |
   diagonalize:                      0.599     0.599   0.0% |
   rotate_psi:                       0.146     0.146   0.0% |
  calc. matrices:                    3.610     3.610   0.2% |
  diagonalize:                       2.204     2.204   0.1% |
  rotate_psi:                        0.117     0.117   0.0% |
 Density:                            1.130     0.000   0.0% |
  Atomic density matrices:           0.052     0.052   0.0% |
  Mix:                               0.091     0.091   0.0% |
  Multipole moments:                 0.002     0.002   0.0% |
  Pseudo density:                    0.984     0.932   0.0% |
   Symmetrize density:               0.051     0.051   0.0% |
 Hamiltonian:                        2.764     0.005   0.0% |
  Atomic:                            2.268     0.010   0.0% |
   XC Correction:                    2.258     2.258   0.1% |
  Calculate atomic Hamiltonians:     0.031     0.031   0.0% |
  Communicate:                       0.000     0.000   0.0% |
  Poisson:                           0.002     0.002   0.0% |
  XC 3D grid:                        0.459     0.459   0.0% |
 Orthonormalize:                     0.670     0.007   0.0% |
  calc_s_matrix:                     0.072     0.072   0.0% |
  inverse-cholesky:                  0.550     0.550   0.0% |
  projections:                       0.036     0.036   0.0% |
  rotate_psi_s:                      0.004     0.004   0.0% |
Set symmetry:                        0.042     0.042   0.0% |
Other:                            2044.546  2044.546  99.1% |---------------------------------------|
-----------------------------------------------------------
Total:                                      2063.019 100.0%

Memory usage: 388.55 MiB
Date: Wed Sep 12 12:13:02 2018
